# vtk DataFile Version 2.0
cavity-coarse
ASCII
DATASET UNSTRUCTURED_GRID
POINTS 18 float
0 0 0 0.05 0 0 0.1 0 0 0 0.05
0 0.05 0.05 0 0.1 0.05 0 0 0.1 0
0.05 0.1 0 0.1 0.1 0 0 0 0.01 0.05
0 0.01 0.1 0 0.01 0 0.05 0.01 0.05 0.05
0.01 0.1 0.05 0.01 0 0.1 0.01 0.05 0.1 0.01
0.1 0.1 0.01 
CELLS 4 36
8 1 10 13 4 0 9 12 3 8 4
5 14 13 1 2 11 10 8 4 13
16 7 3 12 15 6 8 7 8 17
16 4 5 14 13 
CELL_TYPES 4
12 12 12 12 
CELL_DATA 4
FIELD attributes 3
cellID 1 4 int
0 1 2 3 
p 1 4 float
-8.37883e-09 0.184773 -0.162071 0.346843 
U 3 4 float
-0.072698 0.0621655 0 -0.0580401 -0.0721499 0 0.124486 0.0721499 0 0.139144 -0.0621655
0 
POINT_DATA  18
FIELD attributes 2
p 1 18 float
-8.37883e-09 0.0923865 0.184773 -0.0810355 0.0923862 0.265808 -0.162071 0.092386 0.346843 -8.37883e-09 0.0923865
0.184773 -0.0810355 0.0923862 0.265808 -0.162071 0.092386 0.346843 
U 3 18 float
0 0 0 0 0 0 0 0 0 0 0
0 0.033223 0 0 0 0 0 0.5 0 0
1 0 0 0.5 0 0 0 0 0 0
0 0 0 0 0 0 0 0 0.033223 0
0 0 0 0 0.5 0 0 1 0 0
0.5 0 0 
