# vtk DataFile Version 2.0
cavity
ASCII
DATASET UNSTRUCTURED_GRID
POINTS 882 float
0 0 0 0.005 0 0 0.01 0 0 0.015 0
0 0.02 0 0 0.025 0 0 0.03 0 0
0.035 0 0 0.04 0 0 0.045 0 0 0.05
0 0 0.055 0 0 0.06 0 0 0.065 0
0 0.07 0 0 0.075 0 0 0.08 0 0
0.085 0 0 0.09 0 0 0.095 0 0 0.1
0 0 0 0.005 0 0.005 0.005 0 0.01 0.005
0 0.015 0.005 0 0.02 0.005 0 0.025 0.005 0
0.03 0.005 0 0.035 0.005 0 0.04 0.005 0 0.045
0.005 0 0.05 0.005 0 0.055 0.005 0 0.06 0.005
0 0.065 0.005 0 0.07 0.005 0 0.075 0.005 0
0.08 0.005 0 0.085 0.005 0 0.09 0.005 0 0.095
0.005 0 0.1 0.005 0 0 0.01 0 0.005 0.01
0 0.01 0.01 0 0.015 0.01 0 0.02 0.01 0
0.025 0.01 0 0.03 0.01 0 0.035 0.01 0 0.04
0.01 0 0.045 0.01 0 0.05 0.01 0 0.055 0.01
0 0.06 0.01 0 0.065 0.01 0 0.07 0.01 0
0.075 0.01 0 0.08 0.01 0 0.085 0.01 0 0.09
0.01 0 0.095 0.01 0 0.1 0.01 0 0 0.015
0 0.005 0.015 0 0.01 0.015 0 0.015 0.015 0
0.02 0.015 0 0.025 0.015 0 0.03 0.015 0 0.035
0.015 0 0.04 0.015 0 0.045 0.015 0 0.05 0.015
0 0.055 0.015 0 0.06 0.015 0 0.065 0.015 0
0.07 0.015 0 0.075 0.015 0 0.08 0.015 0 0.085
0.015 0 0.09 0.015 0 0.095 0.015 0 0.1 0.015
0 0 0.02 0 0.005 0.02 0 0.01 0.02 0
0.015 0.02 0 0.02 0.02 0 0.025 0.02 0 0.03
0.02 0 0.035 0.02 0 0.04 0.02 0 0.045 0.02
0 0.05 0.02 0 0.055 0.02 0 0.06 0.02 0
0.065 0.02 0 0.07 0.02 0 0.075 0.02 0 0.08
0.02 0 0.085 0.02 0 0.09 0.02 0 0.095 0.02
0 0.1 0.02 0 0 0.025 0 0.005 0.025 0
0.01 0.025 0 0.015 0.025 0 0.02 0.025 0 0.025
0.025 0 0.03 0.025 0 0.035 0.025 0 0.04 0.025
0 0.045 0.025 0 0.05 0.025 0 0.055 0.025 0
0.06 0.025 0 0.065 0.025 0 0.07 0.025 0 0.075
0.025 0 0.08 0.025 0 0.085 0.025 0 0.09 0.025
0 0.095 0.025 0 0.1 0.025 0 0 0.03 0
0.005 0.03 0 0.01 0.03 0 0.015 0.03 0 0.02
0.03 0 0.025 0.03 0 0.03 0.03 0 0.035 0.03
0 0.04 0.03 0 0.045 0.03 0 0.05 0.03 0
0.055 0.03 0 0.06 0.03 0 0.065 0.03 0 0.07
0.03 0 0.075 0.03 0 0.08 0.03 0 0.085 0.03
0 0.09 0.03 0 0.095 0.03 0 0.1 0.03 0
0 0.035 0 0.005 0.035 0 0.01 0.035 0 0.015
0.035 0 0.02 0.035 0 0.025 0.035 0 0.03 0.035
0 0.035 0.035 0 0.04 0.035 0 0.045 0.035 0
0.05 0.035 0 0.055 0.035 0 0.06 0.035 0 0.065
0.035 0 0.07 0.035 0 0.075 0.035 0 0.08 0.035
0 0.085 0.035 0 0.09 0.035 0 0.095 0.035 0
0.1 0.035 0 0 0.04 0 0.005 0.04 0 0.01
0.04 0 0.015 0.04 0 0.02 0.04 0 0.025 0.04
0 0.03 0.04 0 0.035 0.04 0 0.04 0.04 0
0.045 0.04 0 0.05 0.04 0 0.055 0.04 0 0.06
0.04 0 0.065 0.04 0 0.07 0.04 0 0.075 0.04
0 0.08 0.04 0 0.085 0.04 0 0.09 0.04 0
0.095 0.04 0 0.1 0.04 0 0 0.045 0 0.005
0.045 0 0.01 0.045 0 0.015 0.045 0 0.02 0.045
0 0.025 0.045 0 0.03 0.045 0 0.035 0.045 0
0.04 0.045 0 0.045 0.045 0 0.05 0.045 0 0.055
0.045 0 0.06 0.045 0 0.065 0.045 0 0.07 0.045
0 0.075 0.045 0 0.08 0.045 0 0.085 0.045 0
0.09 0.045 0 0.095 0.045 0 0.1 0.045 0 0
0.05 0 0.005 0.05 0 0.01 0.05 0 0.015 0.05
0 0.02 0.05 0 0.025 0.05 0 0.03 0.05 0
0.035 0.05 0 0.04 0.05 0 0.045 0.05 0 0.05
0.05 0 0.055 0.05 0 0.06 0.05 0 0.065 0.05
0 0.07 0.05 0 0.075 0.05 0 0.08 0.05 0
0.085 0.05 0 0.09 0.05 0 0.095 0.05 0 0.1
0.05 0 0 0.055 0 0.005 0.055 0 0.01 0.055
0 0.015 0.055 0 0.02 0.055 0 0.025 0.055 0
0.03 0.055 0 0.035 0.055 0 0.04 0.055 0 0.045
0.055 0 0.05 0.055 0 0.055 0.055 0 0.06 0.055
0 0.065 0.055 0 0.07 0.055 0 0.075 0.055 0
0.08 0.055 0 0.085 0.055 0 0.09 0.055 0 0.095
0.055 0 0.1 0.055 0 0 0.06 0 0.005 0.06
0 0.01 0.06 0 0.015 0.06 0 0.02 0.06 0
0.025 0.06 0 0.03 0.06 0 0.035 0.06 0 0.04
0.06 0 0.045 0.06 0 0.05 0.06 0 0.055 0.06
0 0.06 0.06 0 0.065 0.06 0 0.07 0.06 0
0.075 0.06 0 0.08 0.06 0 0.085 0.06 0 0.09
0.06 0 0.095 0.06 0 0.1 0.06 0 0 0.065
0 0.005 0.065 0 0.01 0.065 0 0.015 0.065 0
0.02 0.065 0 0.025 0.065 0 0.03 0.065 0 0.035
0.065 0 0.04 0.065 0 0.045 0.065 0 0.05 0.065
0 0.055 0.065 0 0.06 0.065 0 0.065 0.065 0
0.07 0.065 0 0.075 0.065 0 0.08 0.065 0 0.085
0.065 0 0.09 0.065 0 0.095 0.065 0 0.1 0.065
0 0 0.07 0 0.005 0.07 0 0.01 0.07 0
0.015 0.07 0 0.02 0.07 0 0.025 0.07 0 0.03
0.07 0 0.035 0.07 0 0.04 0.07 0 0.045 0.07
0 0.05 0.07 0 0.055 0.07 0 0.06 0.07 0
0.065 0.07 0 0.07 0.07 0 0.075 0.07 0 0.08
0.07 0 0.085 0.07 0 0.09 0.07 0 0.095 0.07
0 0.1 0.07 0 0 0.075 0 0.005 0.075 0
0.01 0.075 0 0.015 0.075 0 0.02 0.075 0 0.025
0.075 0 0.03 0.075 0 0.035 0.075 0 0.04 0.075
0 0.045 0.075 0 0.05 0.075 0 0.055 0.075 0
0.06 0.075 0 0.065 0.075 0 0.07 0.075 0 0.075
0.075 0 0.08 0.075 0 0.085 0.075 0 0.09 0.075
0 0.095 0.075 0 0.1 0.075 0 0 0.08 0
0.005 0.08 0 0.01 0.08 0 0.015 0.08 0 0.02
0.08 0 0.025 0.08 0 0.03 0.08 0 0.035 0.08
0 0.04 0.08 0 0.045 0.08 0 0.05 0.08 0
0.055 0.08 0 0.06 0.08 0 0.065 0.08 0 0.07
0.08 0 0.075 0.08 0 0.08 0.08 0 0.085 0.08
0 0.09 0.08 0 0.095 0.08 0 0.1 0.08 0
0 0.085 0 0.005 0.085 0 0.01 0.085 0 0.015
0.085 0 0.02 0.085 0 0.025 0.085 0 0.03 0.085
0 0.035 0.085 0 0.04 0.085 0 0.045 0.085 0
0.05 0.085 0 0.055 0.085 0 0.06 0.085 0 0.065
0.085 0 0.07 0.085 0 0.075 0.085 0 0.08 0.085
0 0.085 0.085 0 0.09 0.085 0 0.095 0.085 0
0.1 0.085 0 0 0.09 0 0.005 0.09 0 0.01
0.09 0 0.015 0.09 0 0.02 0.09 0 0.025 0.09
0 0.03 0.09 0 0.035 0.09 0 0.04 0.09 0
0.045 0.09 0 0.05 0.09 0 0.055 0.09 0 0.06
0.09 0 0.065 0.09 0 0.07 0.09 0 0.075 0.09
0 0.08 0.09 0 0.085 0.09 0 0.09 0.09 0
0.095 0.09 0 0.1 0.09 0 0 0.095 0 0.005
0.095 0 0.01 0.095 0 0.015 0.095 0 0.02 0.095
0 0.025 0.095 0 0.03 0.095 0 0.035 0.095 0
0.04 0.095 0 0.045 0.095 0 0.05 0.095 0 0.055
0.095 0 0.06 0.095 0 0.065 0.095 0 0.07 0.095
0 0.075 0.095 0 0.08 0.095 0 0.085 0.095 0
0.09 0.095 0 0.095 0.095 0 0.1 0.095 0 0
0.1 0 0.005 0.1 0 0.01 0.1 0 0.015 0.1
0 0.02 0.1 0 0.025 0.1 0 0.03 0.1 0
0.035 0.1 0 0.04 0.1 0 0.045 0.1 0 0.05
0.1 0 0.055 0.1 0 0.06 0.1 0 0.065 0.1
0 0.07 0.1 0 0.075 0.1 0 0.08 0.1 0
0.085 0.1 0 0.09 0.1 0 0.095 0.1 0 0.1
0.1 0 0 0 0.01 0.005 0 0.01 0.01 0
0.01 0.015 0 0.01 0.02 0 0.01 0.025 0 0.01
0.03 0 0.01 0.035 0 0.01 0.04 0 0.01 0.045
0 0.01 0.05 0 0.01 0.055 0 0.01 0.06 0
0.01 0.065 0 0.01 0.07 0 0.01 0.075 0 0.01
0.08 0 0.01 0.085 0 0.01 0.09 0 0.01 0.095
0 0.01 0.1 0 0.01 0 0.005 0.01 0.005 0.005
0.01 0.01 0.005 0.01 0.015 0.005 0.01 0.02 0.005 0.01
0.025 0.005 0.01 0.03 0.005 0.01 0.035 0.005 0.01 0.04
0.005 0.01 0.045 0.005 0.01 0.05 0.005 0.01 0.055 0.005
0.01 0.06 0.005 0.01 0.065 0.005 0.01 0.07 0.005 0.01
0.075 0.005 0.01 0.08 0.005 0.01 0.085 0.005 0.01 0.09
0.005 0.01 0.095 0.005 0.01 0.1 0.005 0.01 0 0.01
0.01 0.005 0.01 0.01 0.01 0.01 0.01 0.015 0.01 0.01
0.02 0.01 0.01 0.025 0.01 0.01 0.03 0.01 0.01 0.035
0.01 0.01 0.04 0.01 0.01 0.045 0.01 0.01 0.05 0.01
0.01 0.055 0.01 0.01 0.06 0.01 0.01 0.065 0.01 0.01
0.07 0.01 0.01 0.075 0.01 0.01 0.08 0.01 0.01 0.085
0.01 0.01 0.09 0.01 0.01 0.095 0.01 0.01 0.1 0.01
0.01 0 0.015 0.01 0.005 0.015 0.01 0.01 0.015 0.01
0.015 0.015 0.01 0.02 0.015 0.01 0.025 0.015 0.01 0.03
0.015 0.01 0.035 0.015 0.01 0.04 0.015 0.01 0.045 0.015
0.01 0.05 0.015 0.01 0.055 0.015 0.01 0.06 0.015 0.01
0.065 0.015 0.01 0.07 0.015 0.01 0.075 0.015 0.01 0.08
0.015 0.01 0.085 0.015 0.01 0.09 0.015 0.01 0.095 0.015
0.01 0.1 0.015 0.01 0 0.02 0.01 0.005 0.02 0.01
0.01 0.02 0.01 0.015 0.02 0.01 0.02 0.02 0.01 0.025
0.02 0.01 0.03 0.02 0.01 0.035 0.02 0.01 0.04 0.02
0.01 0.045 0.02 0.01 0.05 0.02 0.01 0.055 0.02 0.01
0.06 0.02 0.01 0.065 0.02 0.01 0.07 0.02 0.01 0.075
0.02 0.01 0.08 0.02 0.01 0.085 0.02 0.01 0.09 0.02
0.01 0.095 0.02 0.01 0.1 0.02 0.01 0 0.025 0.01
0.005 0.025 0.01 0.01 0.025 0.01 0.015 0.025 0.01 0.02
0.025 0.01 0.025 0.025 0.01 0.03 0.025 0.01 0.035 0.025
0.01 0.04 0.025 0.01 0.045 0.025 0.01 0.05 0.025 0.01
0.055 0.025 0.01 0.06 0.025 0.01 0.065 0.025 0.01 0.07
0.025 0.01 0.075 0.025 0.01 0.08 0.025 0.01 0.085 0.025
0.01 0.09 0.025 0.01 0.095 0.025 0.01 0.1 0.025 0.01
0 0.03 0.01 0.005 0.03 0.01 0.01 0.03 0.01 0.015
0.03 0.01 0.02 0.03 0.01 0.025 0.03 0.01 0.03 0.03
0.01 0.035 0.03 0.01 0.04 0.03 0.01 0.045 0.03 0.01
0.05 0.03 0.01 0.055 0.03 0.01 0.06 0.03 0.01 0.065
0.03 0.01 0.07 0.03 0.01 0.075 0.03 0.01 0.08 0.03
0.01 0.085 0.03 0.01 0.09 0.03 0.01 0.095 0.03 0.01
0.1 0.03 0.01 0 0.035 0.01 0.005 0.035 0.01 0.01
0.035 0.01 0.015 0.035 0.01 0.02 0.035 0.01 0.025 0.035
0.01 0.03 0.035 0.01 0.035 0.035 0.01 0.04 0.035 0.01
0.045 0.035 0.01 0.05 0.035 0.01 0.055 0.035 0.01 0.06
0.035 0.01 0.065 0.035 0.01 0.07 0.035 0.01 0.075 0.035
0.01 0.08 0.035 0.01 0.085 0.035 0.01 0.09 0.035 0.01
0.095 0.035 0.01 0.1 0.035 0.01 0 0.04 0.01 0.005
0.04 0.01 0.01 0.04 0.01 0.015 0.04 0.01 0.02 0.04
0.01 0.025 0.04 0.01 0.03 0.04 0.01 0.035 0.04 0.01
0.04 0.04 0.01 0.045 0.04 0.01 0.05 0.04 0.01 0.055
0.04 0.01 0.06 0.04 0.01 0.065 0.04 0.01 0.07 0.04
0.01 0.075 0.04 0.01 0.08 0.04 0.01 0.085 0.04 0.01
0.09 0.04 0.01 0.095 0.04 0.01 0.1 0.04 0.01 0
0.045 0.01 0.005 0.045 0.01 0.01 0.045 0.01 0.015 0.045
0.01 0.02 0.045 0.01 0.025 0.045 0.01 0.03 0.045 0.01
0.035 0.045 0.01 0.04 0.045 0.01 0.045 0.045 0.01 0.05
0.045 0.01 0.055 0.045 0.01 0.06 0.045 0.01 0.065 0.045
0.01 0.07 0.045 0.01 0.075 0.045 0.01 0.08 0.045 0.01
0.085 0.045 0.01 0.09 0.045 0.01 0.095 0.045 0.01 0.1
0.045 0.01 0 0.05 0.01 0.005 0.05 0.01 0.01 0.05
0.01 0.015 0.05 0.01 0.02 0.05 0.01 0.025 0.05 0.01
0.03 0.05 0.01 0.035 0.05 0.01 0.04 0.05 0.01 0.045
0.05 0.01 0.05 0.05 0.01 0.055 0.05 0.01 0.06 0.05
0.01 0.065 0.05 0.01 0.07 0.05 0.01 0.075 0.05 0.01
0.08 0.05 0.01 0.085 0.05 0.01 0.09 0.05 0.01 0.095
0.05 0.01 0.1 0.05 0.01 0 0.055 0.01 0.005 0.055
0.01 0.01 0.055 0.01 0.015 0.055 0.01 0.02 0.055 0.01
0.025 0.055 0.01 0.03 0.055 0.01 0.035 0.055 0.01 0.04
0.055 0.01 0.045 0.055 0.01 0.05 0.055 0.01 0.055 0.055
0.01 0.06 0.055 0.01 0.065 0.055 0.01 0.07 0.055 0.01
0.075 0.055 0.01 0.08 0.055 0.01 0.085 0.055 0.01 0.09
0.055 0.01 0.095 0.055 0.01 0.1 0.055 0.01 0 0.06
0.01 0.005 0.06 0.01 0.01 0.06 0.01 0.015 0.06 0.01
0.02 0.06 0.01 0.025 0.06 0.01 0.03 0.06 0.01 0.035
0.06 0.01 0.04 0.06 0.01 0.045 0.06 0.01 0.05 0.06
0.01 0.055 0.06 0.01 0.06 0.06 0.01 0.065 0.06 0.01
0.07 0.06 0.01 0.075 0.06 0.01 0.08 0.06 0.01 0.085
0.06 0.01 0.09 0.06 0.01 0.095 0.06 0.01 0.1 0.06
0.01 0 0.065 0.01 0.005 0.065 0.01 0.01 0.065 0.01
0.015 0.065 0.01 0.02 0.065 0.01 0.025 0.065 0.01 0.03
[...]
CELL_DATA 400
FIELD attributes 3
cellID 1 400 int
0 1 2 3 4 5 6 7 8 9 10
11 12 13 14 15 16 17 18 19 20
21 22 23 24 25 26 27 28 29 30
31 32 33 34 35 36 37 38 39 40
41 42 43 44 45 46 47 48 49 50
51 52 53 54 55 56 57 58 59 60
61 62 63 64 65 66 67 68 69 70
71 72 73 74 75 76 77 78 79 80
81 82 83 84 85 86 87 88 89 90
91 92 93 94 95 96 97 98 99 100
101 102 103 104 105 106 107 108 109 110
111 112 113 114 115 116 117 118 119 120
121 122 123 124 125 126 127 128 129 130
131 132 133 134 135 136 137 138 139 140
141 142 143 144 145 146 147 148 149 150
151 152 153 154 155 156 157 158 159 160
161 162 163 164 165 166 167 168 169 170
171 172 173 174 175 176 177 178 179 180
181 182 183 184 185 186 187 188 189 190
191 192 193 194 195 196 197 198 199 200
201 202 203 204 205 206 207 208 209 210
211 212 213 214 215 216 217 218 219 220
221 222 223 224 225 226 227 228 229 230
231 232 233 234 235 236 237 238 239 240
241 242 243 244 245 246 247 248 249 250
251 252 253 254 255 256 257 258 259 260
261 262 263 264 265 266 267 268 269 270
271 272 273 274 275 276 277 278 279 280
281 282 283 284 285 286 287 288 289 290
291 292 293 294 295 296 297 298 299 300
301 302 303 304 305 306 307 308 309 310
311 312 313 314 315 316 317 318 319 320
321 322 323 324 325 326 327 328 329 330
331 332 333 334 335 336 337 338 339 340
341 342 343 344 345 346 347 348 349 350
351 352 353 354 355 356 357 358 359 360
361 362 363 364 365 366 367 368 369 370
371 372 373 374 375 376 377 378 379 380
381 382 383 384 385 386 387 388 389 390
391 392 393 394 395 396 397 398 399 
p 1 400 float
4.29931e-06 -0.00582257 -0.0129603 -0.0184126 -0.0204301 -0.0182365 -0.011772 -0.00148187 0.0118391 0.0271508 0.043246
0.0588246 0.0725802 0.0833101 0.0900544 0.0922686 0.0900275 0.0842456 0.0768825 0.071069 0.00578327
-0.000215787 -0.00580166 -0.00954039 -0.0105969 -0.00843077 -0.00296807 0.00547592 0.0163046 0.0287134 0.0417514
0.0543876 0.0655881 0.0744116 0.080122 0.0823176 0.0810791 0.0770567 0.071276 0.0653198 0.0133375
0.00503595 -0.000993126 -0.00442103 -0.00527097 -0.00326208 0.0016041 0.00902928 0.0185037 0.0293509 0.0407671
0.0518713 0.0617702 0.0696381 0.0748088 0.0768799 0.0758435 0.0720878 0.0658074 0.0575374 0.0201416
0.00869811 0.00122797 -0.00266649 -0.00372019 -0.0018835 0.00273298 0.00978621 0.018782 0.0290967 0.0399936
0.0506557 0.0602346 0.0679177 0.073005 0.0750033 0.0737677 0.069458 0.0616049 0.0501045 0.0245041
0.0097752 0.000591855 -0.00398487 -0.00530027 -0.00350548 0.00117647 0.0083362 0.0174636 0.0279507 0.0390866
0.0500716 0.0600506 0.0681668 0.0736281 0.0757995 0.0743708 0.0692917 0.0595275 0.0445392 0.0251799
0.0071521 -0.00379995 -0.00905514 -0.0105101 -0.00849802 -0.00335496 0.00443116 0.014315 0.0256807 0.0378155
0.049905 0.0610498 0.0703049 0.0767364 0.0795186 0.0781407 0.0723354 0.0605412 0.0418921 0.0210955
-0.000260298 -0.0129324 -0.0187072 -0.0200277 -0.0174118 -0.0113164 -0.00231778 0.00899223 0.0219779 0.0359114
0.0499461 0.063114 0.0743471 0.0825237 0.0865713 0.0857225 0.079449 0.0656224 0.0430738 0.0111449
-0.0136161 -0.0278729 -0.0338521 -0.0346014 -0.0308553 -0.0232107 -0.0123431 0.00110686 0.0164858 0.0330544
0.0499355 0.0660853 0.0802918 0.0912026 0.0974319 0.0978722 0.091638 0.0758983 0.0491186 -0.00596503
-0.0342643 -0.0498679 -0.0555464 -0.0550879 -0.0495123 -0.0395912 -0.026111 -0.00975487 0.00882514 0.028903
0.0495955 0.0697995 0.0881566 0.10305 0.112703 0.115553 0.110194 0.0928363 0.0614136 -0.0318549
-0.0638739 -0.0804146 -0.0850049 -0.0824178 -0.074076 -0.0609785 -0.0440342 -0.0239491 -0.00133453 0.0231479
0.0486632 0.0740977 0.0979744 0.118398 0.133128 0.139991 0.13682 0.118443 0.0819359 -0.068665
-0.104601 -0.121342 -0.123588 -0.117513 -0.105124 -0.0877158 -0.066323 -0.0416345 -0.014153 0.0156081
0.0469556 0.0788581 0.109796 0.137626 0.159588 0.172729 0.17378 0.155523 0.113573 -0.1194
-0.159354 -0.174912 -0.172754 -0.161145 -0.142926 -0.119756 -0.0927744 -0.0625748 -0.0294449 0.00637585
0.0444762 0.0840577 0.123706 0.161139 0.193088 0.21567 0.224079 0.208053 0.160635 -0.188625
-0.232239 -0.243936 -0.233945 -0.213691 -0.187152 -0.15637 -0.122498 -0.0858951 -0.0464693 -0.00401152
0.0415418 0.089845 0.139832 0.189322 0.234692 0.271077 0.291667 0.281745 0.229778 -0.283971
-0.329302 -0.331829 -0.308277 -0.274705 -0.236437 -0.195761 -0.153607 -0.109837 -0.063742 -0.0144347
0.0388667 0.0965575 0.15828 0.222377 0.285291 0.3414 0.381578 0.384917 0.331837 -0.419315
-0.459668 -0.442347 -0.395789 -0.342126 -0.287736 -0.234612 -0.182926 -0.131606 -0.0789813 -0.0232104
0.0374789 0.104557 0.178841 0.259865 0.344974 0.428619 0.499703 0.529678 0.485394 -0.620528
-0.63674 -0.578673 -0.494189 -0.411237 -0.335654 -0.267776 -0.205973 -0.147532 -0.0893788 -0.0284219
0.0383524 0.113811 0.200476 0.299979 0.412029 0.533033 0.651779 0.732775 0.722399 -0.935919
-0.878511 -0.741737 -0.597944 -0.474389 -0.372655 -0.288864 -0.217758 -0.153949 -0.0924594 -0.0287128
0.0417002 0.123268 0.220722 0.33893 0.482159 0.652001 0.841346 1.01527 1.09751 -1.47642
-1.20663 -0.920499 -0.691384 -0.517301 -0.38754 -0.290057 -0.213333 -0.148119 -0.0872109 -0.024573
0.0454621 0.128942 0.233075 0.367108 0.542682 0.771297 1.05932 1.40329 1.73015 -2.53964
-1.63054 -1.04443 -0.710954 -0.495746 -0.352089 -0.254526 -0.183579 -0.126165 -0.0735906 -0.0192644
0.0427915 0.119217 0.218787 0.354817 0.547988 0.826397 1.23658 1.91168 2.9242 -4.36666
-2.04463 -0.973538 -0.563177 -0.357842 -0.240143 -0.170115 -0.123779 -0.087477 -0.0535059 -0.0166499
0.0276653 0.0846122 0.161734 0.272416 0.442103 0.718223 1.22571 2.41104 4.84854 
U 3 400 float
0.000253405 -0.000250456 0 0.000141206 0.000111424 0 -0.00117704 0.000564623 0 -0.00348128 0.00088502
0 -0.0063778 0.00104575 0 -0.00946996 0.00106179 0 -0.0124036 0.000957892 0
-0.0148857 0.000760472 0 -0.0166904 0.000494665 0 -0.0176593 0.000184566 0 -0.0177031
-0.00014528 0 -0.016806 -0.000468393 0 -0.0150309 -0.000755454 0 -0.0125258 -0.000974315
0 -0.00952688 -0.00109125 0 -0.00635528 -0.00107406 0 -0.00340079 -0.000898167 0
-0.00108647 -0.000556415 0 0.000196445 -9.03668e-05 0 0.000267875 0.000262401 0 -7.7475e-05
-0.000169394 0 -0.00161166 0.0016449 0 -0.00569325 0.0036175 0 -0.0117196 0.00503512
0 -0.0188935 0.00574358 0 -0.0264025 0.00576057 0 -0.0334714 0.005172 0
-0.0394295 0.00409277 0 -0.043747 0.0026478 0 -0.0460503 0.000966972 0 -0.0461326
-0.000813297 0 -0.0439644 -0.00254726 0 -0.0397039 -0.00407893 0 -0.0337049 -0.00524546
0 -0.0265151 -0.00588695 0 -0.0188558 -0.00586523 0 -0.0115674 -0.00509507 0
-0.00551361 -0.00358963 0 -0.00149316 -0.00155921 0 -4.25773e-05 0.000227481 0 -0.000528648
0.00109168 0 -0.00371165 0.00573665 0 -0.0105897 0.0102251 0 -0.0199931 0.0134085
0 -0.030767 0.0149473 0 -0.0418253 0.0148398 0 -0.0521237 0.0132566 0
-0.0607487 0.0104569 0 -0.0669744 0.00674242 0 -0.0702879 0.00243898 0 -0.0704058
-0.00210675 0 -0.0672892 -0.00652598 0 -0.0611567 -0.01043 0 -0.0524922 -0.013422
0 -0.0420399 -0.0151245 0 -0.030776 -0.0152266 0 -0.0198304 -0.0135569 0
-0.0103642 -0.0101795 0 -0.00354873 -0.00555138 0 -0.000476871 -0.000948872 0 -0.000928295
0.00348007 0 -0.0056919 0.0122215 0 -0.0153029 0.019923 0 -0.0279188 0.0251995
0 -0.0419884 0.0275988 0 -0.0561831 0.0271393 0 -0.0692571 0.0241105 0
-0.0801315 0.0189551 0 -0.0879546 0.0121963 0 -0.0921254 0.00440527 0 -0.09231
-0.00380836 0 -0.0884564 -0.0117975 0 -0.0808105 -0.0188835 0 -0.0699277 -0.024378
0 -0.056673 -0.0276295 0 -0.0421976 -0.0281036 0 -0.0278584 -0.0254992 0
-0.0150946 -0.0198929 0 -0.00550537 -0.0119283 0 -0.000861651 -0.00322504 0 -0.00127902
0.00687824 0 -0.00753654 0.020955 0 -0.0198061 0.0325124 0 -0.0355372 0.0401057
0 -0.0527469 0.043293 0 -0.0698632 0.0421954 0 -0.0854691 0.0372799 0
-0.0983671 0.0292148 0 -0.107627 0.0187783 0 -0.112596 0.00681398 0 -0.112905
-0.00578096 0 -0.108481 -0.0180561 0 -0.0995685 -0.0290134 0 -0.0867445 -0.0376352
0 -0.07094 -0.0429477 0 -0.0534334 -0.0441315 0 -0.0357866 -0.040681 0
-0.0197362 -0.0325942 0 -0.007371 -0.0205917 0 -0.00120374 -0.00649848 0 -0.00160762
0.0112163 0 -0.00931853 0.0318764 0 -0.0242106 0.0479545 0 -0.0430049 0.0580752
0 -0.0632604 0.0619405 0 -0.0831573 0.0598844 0 -0.101129 0.0526311 0
-0.115898 0.0411279 0 -0.126495 0.0264383 0 -0.132244 0.00969316 0 -0.132756
-0.00791705 0 -0.127929 -0.0251338 0 -0.117972 -0.0406274 0 -0.103439 -0.0530223
0 -0.0852728 -0.0609694 0 -0.0648384 -0.0632832 0 -0.0438873 -0.0591447 0
-0.0244787 -0.0483465 0 -0.0092547 -0.0315589 0 -0.00153782 -0.010729 0 -0.00194013
0.0164779 0 -0.0111216 0.0449763 0 -0.0286514 0.0662363 0 -0.0504816 0.0790629
0 -0.0736875 0.08345 0 -0.0962071 0.0800777 0 -0.116356 0.0700274 0
-0.132819 0.0545871 0 -0.144636 0.035133 0 -0.151146 0.0130849 0 -0.151954
-0.0100873 0 -0.14692 -0.0328344 0 -0.136185 -0.0535023 0 -0.120227 -0.07034
0 -0.0999355 -0.0815687 0 -0.0767035 -0.0855361 0 -0.0524416 -0.0809668 0
-0.0295456 -0.0672794 0 -0.0112839 -0.0449411 0 -0.00190013 -0.0159521 0 -0.00230008
0.0226958 0 -0.0130253 0.060303 0 -0.0332514 0.0873666 0 -0.0580807 0.103
0 -0.0840761 0.107669 0 -0.108955 0.102565 0 -0.13097 0.0892472 0
-0.148837 0.0694131 0 -0.161669 0.044773 0 -0.168871 0.0170201 0 -0.170066
-0.0121344 0 -0.165074 -0.0408951 0 -0.153932 -0.067317 0 -0.136972 -0.0892765
0 -0.114944 -0.104516 0 -0.0891771 -0.1108 0 -0.0616715 -0.106216 0
-0.0351488 -0.089582 0 -0.013586 -0.0609512 0 -0.00232637 -0.0222782 0 -0.00271166
0.0299478 0 -0.0151081 0.0779585 0 -0.0381149 0.111359 0 -0.0658487 0.129753
0 -0.0943273 0.134321 0 -0.1211 0.126977 0 -0.144444 0.109905 0
-0.163214 0.0852839 0 -0.176688 0.0551683 0 -0.184408 0.0214871 0 -0.186059
-0.0138756 0 -0.181423 -0.0489584 0 -0.170396 -0.081596 0 -0.153082 -0.109327
0 -0.129972 -0.129384 0 -0.102186 -0.138832 0 -0.0716898 -0.13489 0
-0.0414671 -0.115472 0 -0.0162881 -0.079897 0 -0.00285471 -0.0298902 0 -0.00320765
0.0383603 0 -0.0174662 0.0980911 0 -0.043341 0.138192 0 -0.0737565 0.159049
0 -0.10416 0.162904 0 -0.132032 0.152676 0 -0.155826 0.131344 0
-0.174679 0.101642 0 -0.188168 0.0659588 0 -0.196068 0.0263898 0 -0.198186
-0.0151134 0 -0.194284 -0.056547 0 -0.184082 -0.0956444 0 -0.167367 -0.129692
0 -0.144216 -0.155427 0 -0.115339 -0.169101 0 -0.0824459 -0.166805 0
-0.0486361 -0.145126 0 -0.0195287 -0.102161 0 -0.00353357 -0.0390478 0 -0.00384394
0.0481292 0 -0.0202461 0.120895 0 -0.0490464 0.167754 0 -0.0816861 0.190369
0 -0.113053 0.19256 0 -0.140746 0.178618 0 -0.163621 0.152515 0
-0.181309 0.117595 0 -0.193846 0.0765361 0 -0.20136 0.0314946 0 -0.203856
-0.0156595 0 -0.201109 -0.0630519 0 -0.192648 -0.108493 0 -0.177857 -0.149173
0 -0.156224 -0.181418 0 -0.127779 -0.200609 0 -0.0936441 -0.201427 0
-0.056733 -0.178576 0 -0.0234798 -0.128174 0 -0.00443553 -0.0501049 0 -0.00472534
0.0595716 0 -0.0236945 0.146619 0 -0.0553826 0.199758 0 -0.0893759 0.222793
0 -0.120121 0.221895 0 -0.145675 0.203191 0 -0.165629 0.171842 0
-0.18037 0.131812 0 -0.19058 0.0859711 0 -0.196862 0.0363768 0 -0.199501
-0.0153711 0 -0.198335 -0.0677443 0 -0.192717 -0.118869 0 -0.181573 -0.166081
0 -0.163645 -0.205491 0 -0.137966 -0.231664 0 -0.104596 -0.237628 0
-0.0657334 -0.215527 0 -0.0283776 -0.158369 0 -0.00568207 -0.0635526 0 -0.00605154
0.0732287 0 -0.0282256 0.175564 0 -0.0625082 0.233572 0 -0.0962562 0.254749
0 -0.123856 0.248734 0 -0.144396 0.224029 0 -0.158669 0.187109 0
-0.168105 0.142464 0 -0.174199 0.0929701 0 -0.178117 0.0403795 0 -0.180483
-0.0141989 0 -0.181264 -0.0698223 0 -0.179694 -0.125212 0 -0.174269 -0.178182
0 -0.162894 -0.224975 0 -0.143316 -0.25959 0 -0.113937 -0.273331 0
-0.0753928 -0.255068 0 -0.0345562 -0.193091 0 -0.00748627 -0.0801046 0 -0.00819201
0.0900465 0 -0.0344825 0.208021 0 -0.0704116 0.267885 0 -0.101022 0.283608
0 -0.121573 0.269813 0 -0.133106 0.237843 0 -0.13816 0.195406 0
-0.13946 0.147235 0 -0.139364 0.0959102 0 -0.139592 0.04262 0 -0.141106
-0.0122333 0 -0.144052 -0.0685081 0 -0.147666 -0.125796 0 -0.150167 -0.182771
0 -0.148719 -0.236326 0 -0.139642 -0.280449 0 -0.119094 -0.305027 0
-0.0849355 -0.29516 0 -0.0424403 -0.232378 0 -0.010216 -0.100837 0 -0.0117674
0.111636 0 -0.0432594 0.243962 0 -0.0782965 0.300035 0 -0.100626 0.305094
0 -0.108349 0.280462 0 -0.105728 0.240384 0 -0.0975257 0.193283 0
-0.0877667 0.14355 0 -0.0794964 0.0930367 0 -0.0747806 0.0420953 0 -0.0747983
-0.00972904 0 -0.0798863 -0.0632119 0 -0.0894589 -0.118991 0 -0.101785 -0.176959
0 -0.113683 -0.235287 0 -0.120303 -0.288884 0 -0.115262 -0.327197 0
-0.0922658 -0.331795 0 -0.0523154 -0.275404 0 -0.0144303 -0.127347 0 -0.0175493
0.140659 0 -0.0547642 0.282146 0 -0.0827854 0.324719 0 -0.0880789 0.312475
0 -0.0751062 0.274457 0 -0.0525879 0.226772 0 -0.0274546 0.17729 0
-0.00451012 0.129136 0 0.0131037 0.0829134 0 0.023445 0.0379471 0 0.0254036
-0.00707371 0 0.0185123 -0.0537592 0 0.00298423 -0.103753 0 -0.0199931 -0.158321
0 -0.0476828 -0.217503 0 -0.0749824 -0.278362 0 -0.0935452 -0.331792 0
-0.0920629 -0.357683 0 -0.0632802 -0.319295 0 -0.0206335 -0.161974 0 -0.0254497
0.181711 0 -0.0657743 0.317771 0 -0.0733323 0.331363 0 -0.0480757 0.295401
0 -0.00557621 0.244213 0 0.0412213 0.192381 0 0.0846565 0.145048 0
0.120541 0.102972 0 0.146707 0.0651383 0 0.162052 0.0298916 0 0.165946
-0.00467174 0 0.15794 -0.0406289 0 0.137736 -0.0802473 0 0.105444 -0.125919
0 0.0622649 -0.179727 0 0.0118078 -0.242021 0 -0.0378286 -0.307878 0
-0.0716787 -0.360144 0 -0.0700552 -0.356609 0 -0.0279122 -0.208375 0 -0.029649
0.239176 0 -0.0608412 0.335768 0 -0.021942 0.300503 0 0.0505428 0.240128
0 0.127574 0.182949 0 0.19701 0.13539 0 0.254339 0.0973996 0
0.298254 0.0668515 0 0.328828 0.0413556 0 0.34647 0.0187787 0 0.351379
-0.00279427 0 0.343306 -0.0252654 0 0.321472 -0.0507882 0 0.284645 -0.0820486
0 0.231574 -0.122446 0 0.162182 -0.17567 0 0.0799015 -0.243432 0
-0.00318937 -0.319136 0 -0.0546694 -0.368612 0 -0.0284593 -0.267618 0 0.00808308
0.281861 0 0.0197831 0.294972 0 0.139066 0.210973 0 0.26446 0.143477
0 0.364368 0.0971862 0 0.440365 0.0657777 0 0.496744 0.0442377 0
0.536875 0.0288862 0 0.563448 0.017199 0 0.578307 0.00748481 0 0.582382
-0.00149417 0 0.575697 -0.0108454 0 0.55731 -0.0218472 0 0.525136 -0.0363351
0 0.475778 -0.0572598 0 0.404538 -0.0893842 0 0.305177 -0.139741 0
0.173417 -0.216386 0 0.0411721 -0.311655 0 0.0184302 -0.299995 0 0.299604
0.146091 0 0.396272 0.127503 0 0.55742 0.0760895 0 0.674487 0.0437233
0 0.743889 0.0255721 0 0.787154 0.0152422 0 0.815486 0.00921237 0
0.833956 0.00550944 0 0.845386 0.00302719 0 0.851372 0.00114935 0 0.852667
-0.000499394 0 0.849383 -0.00221509 0 0.841 -0.00433859 0 0.826141 -0.00742411
0 0.802078 -0.0125323 0 0.763621 -0.0217729 0 0.699108 -0.0392829 0
0.583952 -0.0726601 0 0.415827 -0.127868 0 0.308819 -0.149468 0 
POINT_DATA  882
FIELD attributes 2
p 1 882 float
4.29931e-06 -0.00290914 -0.00939144 -0.0156865 -0.0194214 -0.0193333 -0.0150043 -0.00662694 0.00517861 0.019495 0.0351984
0.0510353 0.0657024 0.0779452 0.0866823 0.0911615 0.091148 0.0871366 0.0805641 0.0739757 0.071069
0.00289378 -6.26969e-05 -0.00620008 -0.0116787 -0.014745 -0.0144236 -0.0103518 -0.0026865 0.00803444 0.021002
0.0352154 0.0495524 0.0628451 0.0739725 0.0819745 0.0861906 0.0864232 0.0831022 0.0773652 0.0711368
0.0681944 0.00956038 0.00598523 -0.000493656 -0.00518905 -0.00745732 -0.00689018 -0.00326421 0.00328531 0.0123284
0.0232181 0.0351457 0.0471944 0.0584043 0.067852 0.0747451 0.0785321 0.07903 0.0765168 0.071557
0.0649851 0.0614286 0.0167395 0.0118033 0.00349223 -0.00171317 -0.00401967 -0.00353419 -0.000202125 0.00578814
0.0140253 0.0239333 0.0348021 0.0458219 0.0561329 0.0648902 0.0713424 0.0749243 0.0753736 0.0727893
0.0672395 0.0587635 0.0538209 0.0223229 0.0157798 0.00507328 -0.00120788 -0.00391795 -0.00360236 -0.000369883
0.00550797 0.013592 0.0233232 0.0340319 0.0449519 0.0552531 0.0640924 0.0706794 0.074359 0.0747353
0.0717221 0.0649705 0.053944 0.0473218 0.024842 0.0166528 0.0034298 -0.00406203 -0.0072126 -0.00695347
-0.0035455 0.00264722 0.0111365 0.0213525 0.0326334 0.0442197 0.0552692 0.064893 0.0722091 0.0764206
0.0769574 0.0735347 0.065424 0.051625 0.0432157 0.0231377 0.0132918 -0.00246014 -0.0111237 -0.014575
-0.0141119 -0.0101453 -0.00313949 0.00635515 0.0177415 0.0303464 0.0433945 0.0560037 0.0672039 0.075978
0.0813375 0.0824883 0.0789119 0.069487 0.0527824 0.0424829 0.0161202 0.004591 -0.0136704 -0.0233411
-0.0267971 -0.025724 -0.0206985 -0.012297 -0.00114045 0.0121407 0.0268574 0.0422118 0.0572702 0.0709596
0.0820913 0.0894324 0.0918995 0.0886704 0.0781519 0.0584283 0.0460962 0.00258993 -0.0106751 -0.0314053
-0.0417848 -0.044772 -0.0425142 -0.0357924 -0.025314 -0.0117755 0.00416573 0.0218171 0.0403721 0.058854
0.0760833 0.0906752 0.101097 0.10589 0.103814 0.0926417 0.0698167 0.0552661 -0.01891 -0.0339895
-0.0571052 -0.0677084 -0.0695143 -0.0652735 -0.0560395 -0.0426787 -0.0259623 -0.00655334 0.0148854 0.0375774
0.060539 0.0825071 0.101895 0.11682 0.125344 0.125639 0.114573 0.0886572 0.0716747 -0.05026
-0.0672487 -0.0925579 -0.102587 -0.102131 -0.0947827 -0.0819736 -0.0647629 -0.0439852 -0.0202678 0.00581712
0.0335937 0.0621436 0.0901816 0.115949 0.137185 0.151359 0.15583 0.146141 0.117369 0.0977544
-0.0940325 -0.113005 -0.140052 -0.148149 -0.14375 -0.131677 -0.11388 -0.0916423 -0.0658267 -0.0369518
-0.00540349 0.0283539 0.0635869 0.0991044 0.133067 0.16286 0.185269 0.196564 0.190359 0.159446
0.137104 -0.154013 -0.174904 -0.20261 -0.206387 -0.195384 -0.176228 -0.151551 -0.12285 -0.0909356
-0.056096 -0.0183875 0.0220956 0.0649802 0.10936 0.1535 0.19456 0.228632 0.250623 0.251386
0.220053 0.195206 -0.236298 -0.258534 -0.284326 -0.279497 -0.257654 -0.227996 -0.19393 -0.157059
-0.117959 -0.0764858 -0.0321644 0.0154906 0.0667028 0.121129 0.177453 0.23292 0.283115 0.321431
0.334977 0.307069 0.280807 -0.351643 -0.373064 -0.390786 -0.369561 -0.330224 -0.285251 -0.238636
-0.191727 -0.144494 -0.0960416 -0.0450921 0.00967512 0.069365 0.134559 0.204841 0.278127 0.350071
0.412825 0.448969 0.432956 0.408615 -0.519921 -0.534063 -0.529357 -0.477749 -0.410835 -0.344188
-0.281444 -0.222822 -0.167009 -0.111875 -0.0549981 0.00604975 0.0735498 0.149421 0.23479 0.329212
0.429664 0.528283 0.603484 0.617562 0.603896 -0.778224 -0.767924 -0.708915 -0.603136 -0.49444
-0.398484 -0.316237 -0.245093 -0.181303 -0.12083 -0.0597432 0.00572948 0.0792829 0.164569 0.265027
0.383274 0.519805 0.66954 0.810292 0.891989 0.909954 -1.20617 -1.12437 -0.936844 -0.737891
-0.570255 -0.437971 -0.334779 -0.252503 -0.18329 -0.120435 -0.058239 0.00846913 0.0848431 0.176502
0.289959 0.43272 0.612035 0.830991 1.07981 1.31156 1.41383 -2.00803 -1.71331 -1.20052
-0.841817 -0.603846 -0.438169 -0.321053 -0.235374 -0.167799 -0.108771 -0.0511597 0.0111041 0.0841032
0.175005 0.293447 0.453149 0.672091 0.973399 1.40272 1.99233 2.32717 -3.45315 -2.64537
-1.42328 -0.823025 -0.53193 -0.361455 -0.254218 -0.183 -0.13025 -0.0851846 -0.0407527 0.00863563
0.0685715 0.146088 0.251938 0.404331 0.633678 1.00173 1.69625 3.02386 3.88637 -4.36666
-3.20565 -1.50908 -0.768358 -0.46051 -0.298993 -0.205129 -0.146947 -0.105628 -0.0704914 -0.0350779
0.0055077 0.0561388 0.123173 0.217075 0.35726 0.580163 0.971967 1.81837 3.62979 4.84854
4.29931e-06 -0.00290914 -0.00939144 -0.0156865 -0.0194214 -0.0193333 -0.0150043 -0.00662694 0.00517861 0.019495
0.0351984 0.0510353 0.0657024 0.0779452 0.0866823 0.0911615 0.091148 0.0871366 0.0805641 0.0739757
0.071069 0.00289378 -6.26969e-05 -0.00620008 -0.0116787 -0.014745 -0.0144236 -0.0103518 -0.0026865 0.00803444
0.021002 0.0352154 0.0495524 0.0628451 0.0739725 0.0819745 0.0861906 0.0864232 0.0831022 0.0773652
0.0711368 0.0681944 0.00956038 0.00598523 -0.000493656 -0.00518905 -0.00745732 -0.00689018 -0.00326421 0.00328531
0.0123284 0.0232181 0.0351457 0.0471944 0.0584043 0.067852 0.0747451 0.0785321 0.07903 0.0765168
0.071557 0.0649851 0.0614286 0.0167395 0.0118033 0.00349223 -0.00171317 -0.00401967 -0.00353419 -0.000202125
0.00578814 0.0140253 0.0239333 0.0348021 0.0458219 0.0561329 0.0648902 0.0713424 0.0749243 0.0753736