# vtk DataFile Version 3.0
vtk output
ASCII
DATASET UNSTRUCTURED_GRID
POINTS 18 double
10 5 0 15 5 0 20 5 0 
10 10 0 15 10 0 20 10 0 
10 5 0.5 15 5 0.5 20 5 0.5 
10 10 0.5 15 10 0.5 20 10 0.5 
10 5 1 15 5 1 20 5 1 
10 10 1 15 10 1 20 10 1 
CELLS 8 56
6 0 1 3 6 7 9 
6 1 4 3 7 10 9 
6 1 2 4 7 8 10 
6 2 5 4 8 11 10 
6 6 7 9 12 13 15 
6 7 10 9 13 16 15 
6 7 8 10 13 14 16 
6 8 11 10 14 17 16 
CELL_TYPES 8
13
13
13
13
13
13
13
13
CELL_DATA 8
SCALARS foo long
LOOKUP_TABLE default
0 1 2 3 4 5 6 7 